+ 0.5 1 2 cbr 1000 ------- 0 1.0 3.0 0 0
- 0.5 1 2 cbr 1000 ------- 0 1.0 3.0 0 0
+ 0.508 1 2 cbr 1000 ------- 0 1.0 3.0 1 1
- 0.508 1 2 cbr 1000 ------- 0 1.0 3.0 1 1
r 0.514 1 2 cbr 1000 ------- 0 1.0 3.0 0 0
+ 0.514 2 3 cbr 1000 ------- 0 1.0 3.0 0 0
- 0.514 2 3 cbr 1000 ------- 0 1.0 3.0 0 0
+ 0.516 1 2 cbr 1000 ------- 0 1.0 3.0 2 2
- 0.516 1 2 cbr 1000 ------- 0 1.0 3.0 2 2
r 0.522 1 2 cbr 1000 ------- 0 1.0 3.0 1 1
+ 0.522 2 3 cbr 1000 ------- 0 1.0 3.0 1 1
- 0.522 2 3 cbr 1000 ------- 0 1.0 3.0 1 1
+ 0.524 1 2 cbr 1000 ------- 0 1.0 3.0 3 3
- 0.524 1 2 cbr 1000 ------- 0 1.0 3.0 3 3
r 0.53 1 2 cbr 1000 ------- 0 1.0 3.0 2 2
+ 0.53 2 3 cbr 1000 ------- 0 1.0 3.0 2 2
- 0.53 2 3 cbr 1000 ------- 0 1.0 3.0 2 2
+ 0.532 1 2 cbr 1000 ------- 0 1.0 3.0 4 4
- 0.532 1 2 cbr 1000 ------- 0 1.0 3.0 4 4
r 0.538 1 2 cbr 1000 ------- 0 1.0 3.0 3 3
+ 0.538 2 3 cbr 1000 ------- 0 1.0 3.0 3 3
- 0.538 2 3 cbr 1000 ------- 0 1.0 3.0 3 3
r 0.538706 2 3 cbr 1000 ------- 0 1.0 3.0 0 0
+ 0.54 1 2 cbr 1000 ------- 0 1.0 3.0 5 5
- 0.54 1 2 cbr 1000 ------- 0 1.0 3.0 5 5
r 0.546 1 2 cbr 1000 ------- 0 1.0 3.0 4 4
+ 0.546 2 3 cbr 1000 ------- 0 1.0 3.0 4 4
- 0.546 2 3 cbr 1000 ------- 0 1.0 3.0 4 4
r 0.546706 2 3 cbr 1000 ------- 0 1.0 3.0 1 1
+ 0.548 1 2 cbr 1000 ------- 0 1.0 3.0 6 6
- 0.548 1 2 cbr 1000 ------- 0 1.0 3.0 6 6
r 0.554 1 2 cbr 1000 ------- 0 1.0 3.0 5 5
+ 0.554 2 3 cbr 1000 ------- 0 1.0 3.0 5 5
- 0.554 2 3 cbr 1000 ------- 0 1.0 3.0 5 5
r 0.554706 2 3 cbr 1000 ------- 0 1.0 3.0 2 2
+ 0.556 1 2 cbr 1000 ------- 0 1.0 3.0 7 7
- 0.556 1 2 cbr 1000 ------- 0 1.0 3.0 7 7
r 0.562 1 2 cbr 1000 ------- 0 1.0 3.0 6 6
+ 0.562 2 3 cbr 1000 ------- 0 1.0 3.0 6 6
- 0.562 2 3 cbr 1000 ------- 0 1.0 3.0 6 6
r 0.562706 2 3 cbr 1000 ------- 0 1.0 3.0 3 3
+ 0.564 1 2 cbr 1000 ------- 0 1.0 3.0 8 8
- 0.564 1 2 cbr 1000 ------- 0 1.0 3.0 8 8
r 0.57 1 2 cbr 1000 ------- 0 1.0 3.0 7 7
+ 0.57 2 3 cbr 1000 ------- 0 1.0 3.0 7 7
- 0.57 2 3 cbr 1000 ------- 0 1.0 3.0 7 7
r 0.570706 2 3 cbr 1000 ------- 0 1.0 3.0 4 4
+ 0.572 1 2 cbr 1000 ------- 0 1.0 3.0 9 9
- 0.572 1 2 cbr 1000 ------- 0 1.0 3.0 9 9
r 0.578 1 2 cbr 1000 ------- 0 1.0 3.0 8 8
+ 0.578 2 3 cbr 1000 ------- 0 1.0 3.0 8 8
- 0.578 2 3 cbr 1000 ------- 0 1.0 3.0 8 8
r 0.578706 2 3 cbr 1000 ------- 0 1.0 3.0 5 5
+ 0.58 1 2 cbr 1000 ------- 0 1.0 3.0 10 10
- 0.58 1 2 cbr 1000 ------- 0 1.0 3.0 10 10
r 0.586 1 2 cbr 1000 ------- 0 1.0 3.0 9 9
+ 0.586 2 3 cbr 1000 ------- 0 1.0 3.0 9 9
- 0.586 2 3 cbr 1000 ------- 0 1.0 3.0 9 9
r 0.586706 2 3 cbr 1000 ------- 0 1.0 3.0 6 6
+ 0.588 1 2 cbr 1000 ------- 0 1.0 3.0 11 11
- 0.588 1 2 cbr 1000 ------- 0 1.0 3.0 11 11
r 0.594 1 2 cbr 1000 ------- 0 1.0 3.0 10 10
+ 0.594 2 3 cbr 1000 ------- 0 1.0 3.0 10 10
- 0.594 2 3 cbr 1000 ------- 0 1.0 3.0 10 10
r 0.594706 2 3 cbr 1000 ------- 0 1.0 3.0 7 7
+ 0.596 1 2 cbr 1000 ------- 0 1.0 3.0 12 12
- 0.596 1 2 cbr 1000 ------- 0 1.0 3.0 12 12
r 0.602 1 2 cbr 1000 ------- 0 1.0 3.0 11 11
+ 0.602 2 3 cbr 1000 ------- 0 1.0 3.0 11 11
- 0.602 2 3 cbr 1000 ------- 0 1.0 3.0 11 11
r 0.602706 2 3 cbr 1000 ------- 0 1.0 3.0 8 8
+ 0.604 1 2 cbr 1000 ------- 0 1.0 3.0 13 13
- 0.604 1 2 cbr 1000 ------- 0 1.0 3.0 13 13
r 0.61 1 2 cbr 1000 ------- 0 1.0 3.0 12 12
+ 0.61 2 3 cbr 1000 ------- 0 1.0 3.0 12 12
- 0.61 2 3 cbr 1000 ------- 0 1.0 3.0 12 12
r 0.610706 2 3 cbr 1000 ------- 0 1.0 3.0 9 9
+ 0.612 1 2 cbr 1000 ------- 0 1.0 3.0 14 14
- 0.612 1 2 cbr 1000 ------- 0 1.0 3.0 14 14
r 0.618 1 2 cbr 1000 ------- 0 1.0 3.0 13 13
+ 0.618 2 3 cbr 1000 ------- 0 1.0 3.0 13 13
- 0.618 2 3 cbr 1000 ------- 0 1.0 3.0 13 13
r 0.618706 2 3 cbr 1000 ------- 0 1.0 3.0 10 10
+ 0.62 1 2 cbr 1000 ------- 0 1.0 3.0 15 15
- 0.62 1 2 cbr 1000 ------- 0 1.0 3.0 15 15
r 0.626 1 2 cbr 1000 ------- 0 1.0 3.0 14 14
+ 0.626 2 3 cbr 1000 ------- 0 1.0 3.0 14 14
- 0.626 2 3 cbr 1000 ------- 0 1.0 3.0 14 14
r 0.626706 2 3 cbr 1000 ------- 0 1.0 3.0 11 11
+ 0.628 1 2 cbr 1000 ------- 0 1.0 3.0 16 16
- 0.628 1 2 cbr 1000 ------- 0 1.0 3.0 16 16
r 0.634 1 2 cbr 1000 ------- 0 1.0 3.0 15 15
+ 0.634 2 3 cbr 1000 ------- 0 1.0 3.0 15 15
- 0.634 2 3 cbr 1000 ------- 0 1.0 3.0 15 15
r 0.634706 2 3 cbr 1000 ------- 0 1.0 3.0 12 12
+ 0.636 1 2 cbr 1000 ------- 0 1.0 3.0 17 17
- 0.636 1 2 cbr 1000 ------- 0 1.0 3.0 17 17
r 0.642 1 2 cbr 1000 ------- 0 1.0 3.0 16 16
+ 0.642 2 3 cbr 1000 ------- 0 1.0 3.0 16 16
- 0.642 2 3 cbr 1000 ------- 0 1.0 3.0 16 16
r 0.642706 2 3 cbr 1000 ------- 0 1.0 3.0 13 13
+ 0.644 1 2 cbr 1000 ------- 0 1.0 3.0 18 18
- 0.644 1 2 cbr 1000 ------- 0 1.0 3.0 18 18
r 0.65 1 2 cbr 1000 ------- 0 1.0 3.0 17 17
+ 0.65 2 3 cbr 1000 ------- 0 1.0 3.0 17 17
- 0.65 2 3 cbr 1000 ------- 0 1.0 3.0 17 17
r 0.650706 2 3 cbr 1000 ------- 0 1.0 3.0 14 14
+ 0.652 1 2 cbr 1000 ------- 0 1.0 3.0 19 19
- 0.652 1 2 cbr 1000 ------- 0 1.0 3.0 19 19
r 0.658 1 2 cbr 1000 ------- 0 1.0 3.0 18 18
+ 0.658 2 3 cbr 1000 ------- 0 1.0 3.0 18 18
- 0.658 2 3 cbr 1000 ------- 0 1.0 3.0 18 18
r 0.658706 2 3 cbr 1000 ------- 0 1.0 3.0 15 15
+ 0.66 1 2 cbr 1000 ------- 0 1.0 3.0 20 20
- 0.66 1 2 cbr 1000 ------- 0 1.0 3.0 20 20
r 0.666 1 2 cbr 1000 ------- 0 1.0 3.0 19 19
+ 0.666 2 3 cbr 1000 ------- 0 1.0 3.0 19 19
- 0.666 2 3 cbr 1000 ------- 0 1.0 3.0 19 19
r 0.666706 2 3 cbr 1000 ------- 0 1.0 3.0 16 16
+ 0.668 1 2 cbr 1000 ------- 0 1.0 3.0 21 21
- 0.668 1 2 cbr 1000 ------- 0 1.0 3.0 21 21
r 0.674 1 2 cbr 1000 ------- 0 1.0 3.0 20 20
+ 0.674 2 3 cbr 1000 ------- 0 1.0 3.0 20 20
- 0.674 2 3 cbr 1000 ------- 0 1.0 3.0 20 20
r 0.674706 2 3 cbr 1000 ------- 0 1.0 3.0 17 17
+ 0.676 1 2 cbr 1000 ------- 0 1.0 3.0 22 22
- 0.676 1 2 cbr 1000 ------- 0 1.0 3.0 22 22
r 0.682 1 2 cbr 1000 ------- 0 1.0 3.0 21 21
+ 0.682 2 3 cbr 1000 ------- 0 1.0 3.0 21 21
- 0.682 2 3 cbr 1000 ------- 0 1.0 3.0 21 21
r 0.682706 2 3 cbr 1000 ------- 0 1.0 3.0 18 18
+ 0.684 1 2 cbr 1000 ------- 0 1.0 3.0 23 23
- 0.684 1 2 cbr 1000 ------- 0 1.0 3.0 23 23
r 0.69 1 2 cbr 1000 ------- 0 1.0 3.0 22 22
+ 0.69 2 3 cbr 1000 ------- 0 1.0 3.0 22 22
- 0.69 2 3 cbr 1000 ------- 0 1.0 3.0 22 22
r 0.690706 2 3 cbr 1000 ------- 0 1.0 3.0 19 19
+ 0.692 1 2 cbr 1000 ------- 0 1.0 3.0 24 24
- 0.692 1 2 cbr 1000 ------- 0 1.0 3.0 24 24
r 0.698 1 2 cbr 1000 ------- 0 1.0 3.0 23 23
+ 0.698 2 3 cbr 1000 ------- 0 1.0 3.0 23 23
- 0.698 2 3 cbr 1000 ------- 0 1.0 3.0 23 23
r 0.698706 2 3 cbr 1000 ------- 0 1.0 3.0 20 20
+ 0.7 1 2 cbr 1000 ------- 0 1.0 3.0 25 25
- 0.7 1 2 cbr 1000 ------- 0 1.0 3.0 25 25
r 0.706 1 2 cbr 1000 ------- 0 1.0 3.0 24 24
+ 0.706 2 3 cbr 1000 ------- 0 1.0 3.0 24 24
- 0.706 2 3 cbr 1000 ------- 0 1.0 3.0 24 24
r 0.706706 2 3 cbr 1000 ------- 0 1.0 3.0 21 21
+ 0.708 1 2 cbr 1000 ------- 0 1.0 3.0 26 26
- 0.708 1 2 cbr 1000 ------- 0 1.0 3.0 26 26
r 0.714 1 2 cbr 1000 ------- 0 1.0 3.0 25 25
+ 0.714 2 3 cbr 1000 ------- 0 1.0 3.0 25 25
- 0.714 2 3 cbr 1000 ------- 0 1.0 3.0 25 25
r 0.714706 2 3 cbr 1000 ------- 0 1.0 3.0 22 22
+ 0.716 1 2 cbr 1000 ------- 0 1.0 3.0 27 27
- 0.716 1 2 cbr 1000 ------- 0 1.0 3.0 27 27
r 0.722 1 2 cbr 1000 ------- 0 1.0 3.0 26 26
+ 0.722 2 3 cbr 1000 ------- 0 1.0 3.0 26 26
- 0.722 2 3 cbr 1000 ------- 0 1.0 3.0 26 26
r 0.722706 2 3 cbr 1000 ------- 0 1.0 3.0 23 23
+ 0.724 1 2 cbr 1000 ------- 0 1.0 3.0 28 28
- 0.724 1 2 cbr 1000 ------- 0 1.0 3.0 28 28
r 0.73 1 2 cbr 1000 ------- 0 1.0 3.0 27 27
+ 0.73 2 3 cbr 1000 ------- 0 1.0 3.0 27 27
- 0.73 2 3 cbr 1000 ------- 0 1.0 3.0 27 27
r 0.730706 2 3 cbr 1000 ------- 0 1.0 3.0 24 24
+ 0.732 1 2 cbr 1000 ------- 0 1.0 3.0 29 29
- 0.732 1 2 cbr 1000 ------- 0 1.0 3.0 29 29
r 0.738 1 2 cbr 1000 ------- 0 1.0 3.0 28 28
+ 0.738 2 3 cbr 1000 ------- 0 1.0 3.0 28 28
- 0.738 2 3 cbr 1000 ------- 0 1.0 3.0 28 28
r 0.738706 2 3 cbr 1000 ------- 0 1.0 3.0 25 25
+ 0.74 1 2 cbr 1000 ------- 0 1.0 3.0 30 30
- 0.74 1 2 cbr 1000 ------- 0 1.0 3.0 30 30
r 0.746 1 2 cbr 1000 ------- 0 1.0 3.0 29 29
+ 0.746 2 3 cbr 1000 ------- 0 1.0 3.0 29 29
- 0.746 2 3 cbr 1000 ------- 0 1.0 3.0 29 29
r 0.746706 2 3 cbr 1000 ------- 0 1.0 3.0 26 26
+ 0.748 1 2 cbr 1000 ------- 0 1.0 3.0 31 31
- 0.748 1 2 cbr 1000 ------- 0 1.0 3.0 31 31
r 0.754 1 2 cbr 1000 ------- 0 1.0 3.0 30 30
+ 0.754 2 3 cbr 1000 ------- 0 1.0 3.0 30 30
- 0.754 2 3 cbr 1000 ------- 0 1.0 3.0 30 30
r 0.754706 2 3 cbr 1000 ------- 0 1.0 3.0 27 27
+ 0.756 1 2 cbr 1000 ------- 0 1.0 3.0 32 32
- 0.756 1 2 cbr 1000 ------- 0 1.0 3.0 32 32
r 0.762 1 2 cbr 1000 ------- 0 1.0 3.0 31 31
+ 0.762 2 3 cbr 1000 ------- 0 1.0 3.0 31 31
- 0.762 2 3 cbr 1000 ------- 0 1.0 3.0 31 31
r 0.762706 2 3 cbr 1000 ------- 0 1.0 3.0 28 28
+ 0.764 1 2 cbr 1000 ------- 0 1.0 3.0 33 33
- 0.764 1 2 cbr 1000 ------- 0 1.0 3.0 33 33
r 0.77 1 2 cbr 1000 ------- 0 1.0 3.0 32 32
+ 0.77 2 3 cbr 1000 ------- 0 1.0 3.0 32 32
- 0.77 2 3 cbr 1000 ------- 0 1.0 3.0 32 32
r 0.770706 2 3 cbr 1000 ------- 0 1.0 3.0 29 29
+ 0.772 1 2 cbr 1000 ------- 0 1.0 3.0 34 34
- 0.772 1 2 cbr 1000 ------- 0 1.0 3.0 34 34
r 0.778 1 2 cbr 1000 ------- 0 1.0 3.0 33 33
+ 0.778 2 3 cbr 1000 ------- 0 1.0 3.0 33 33
- 0.778 2 3 cbr 1000 ------- 0 1.0 3.0 33 33
r 0.778706 2 3 cbr 1000 ------- 0 1.0 3.0 30 30
+ 0.78 1 2 cbr 1000 ------- 0 1.0 3.0 35 35
- 0.78 1 2 cbr 1000 ------- 0 1.0 3.0 35 35
r 0.786 1 2 cbr 1000 ------- 0 1.0 3.0 34 34
+ 0.786 2 3 cbr 1000 ------- 0 1.0 3.0 34 34
- 0.786 2 3 cbr 1000 ------- 0 1.0 3.0 34 34
r 0.786706 2 3 cbr 1000 ------- 0 1.0 3.0 31 31
+ 0.788 1 2 cbr 1000 ------- 0 1.0 3.0 36 36
- 0.788 1 2 cbr 1000 ------- 0 1.0 3.0 36 36
r 0.794 1 2 cbr 1000 ------- 0 1.0 3.0 35 35
+ 0.794 2 3 cbr 1000 ------- 0 1.0 3.0 35 35
- 0.794 2 3 cbr 1000 ------- 0 1.0 3.0 35 35
r 0.794706 2 3 cbr 1000 ------- 0 1.0 3.0 32 32
+ 0.796 1 2 cbr 1000 ------- 0 1.0 3.0 37 37
- 0.796 1 2 cbr 1000 ------- 0 1.0 3.0 37 37
r 0.802 1 2 cbr 1000 ------- 0 1.0 3.0 36 36
+ 0.802 2 3 cbr 1000 ------- 0 1.0 3.0 36 36
- 0.802 2 3 cbr 1000 ------- 0 1.0 3.0 36 36
r 0.802706 2 3 cbr 1000 ------- 0 1.0 3.0 33 33
+ 0.804 1 2 cbr 1000 ------- 0 1.0 3.0 38 38
- 0.804 1 2 cbr 1000 ------- 0 1.0 3.0 38 38
r 0.81 1 2 cbr 1000 ------- 0 1.0 3.0 37 37
+ 0.81 2 3 cbr 1000 ------- 0 1.0 3.0 37 37
- 0.81 2 3 cbr 1000 ------- 0 1.0 3.0 37 37
r 0.810706 2 3 cbr 1000 ------- 0 1.0 3.0 34 34
+ 0.812 1 2 cbr 1000 ------- 0 1.0 3.0 39 39
- 0.812 1 2 cbr 1000 ------- 0 1.0 3.0 39 39
r 0.818 1 2 cbr 1000 ------- 0 1.0 3.0 38 38
+ 0.818 2 3 cbr 1000 ------- 0 1.0 3.0 38 38
- 0.818 2 3 cbr 1000 ------- 0 1.0 3.0 38 38
r 0.818706 2 3 cbr 1000 ------- 0 1.0 3.0 35 35
+ 0.82 1 2 cbr 1000 ------- 0 1.0 3.0 40 40
- 0.82 1 2 cbr 1000 ------- 0 1.0 3.0 40 40
r 0.826 1 2 cbr 1000 ------- 0 1.0 3.0 39 39
+ 0.826 2 3 cbr 1000 ------- 0 1.0 3.0 39 39
- 0.826 2 3 cbr 1000 ------- 0 1.0 3.0 39 39
r 0.826706 2 3 cbr 1000 ------- 0 1.0 3.0 36 36
+ 0.828 1 2 cbr 1000 ------- 0 1.0 3.0 41 41
- 0.828 1 2 cbr 1000 ------- 0 1.0 3.0 41 41
r 0.834 1 2 cbr 1000 ------- 0 1.0 3.0 40 40
+ 0.834 2 3 cbr 1000 ------- 0 1.0 3.0 40 40
- 0.834 2 3 cbr 1000 ------- 0 1.0 3.0 40 40
r 0.834706 2 3 cbr 1000 ------- 0 1.0 3.0 37 37
+ 0.836 1 2 cbr 1000 ------- 0 1.0 3.0 42 42
- 0.836 1 2 cbr 1000 ------- 0 1.0 3.0 42 42
r 0.842 1 2 cbr 1000 ------- 0 1.0 3.0 41 41
+ 0.842 2 3 cbr 1000 ------- 0 1.0 3.0 41 41
- 0.842 2 3 cbr 1000 ------- 0 1.0 3.0 41 41
r 0.842706 2 3 cbr 1000 ------- 0 1.0 3.0 38 38
+ 0.844 1 2 cbr 1000 ------- 0 1.0 3.0 43 43
- 0.844 1 2 cbr 1000 ------- 0 1.0 3.0 43 43
r 0.85 1 2 cbr 1000 ------- 0 1.0 3.0 42 42
+ 0.85 2 3 cbr 1000 ------- 0 1.0 3.0 42 42
- 0.85 2 3 cbr 1000 ------- 0 1.0 3.0 42 42
r 0.850706 2 3 cbr 1000 ------- 0 1.0 3.0 39 39
+ 0.852 1 2 cbr 1000 ------- 0 1.0 3.0 44 44
- 0.852 1 2 cbr 1000 ------- 0 1.0 3.0 44 44
r 0.858 1 2 cbr 1000 ------- 0 1.0 3.0 43 43
+ 0.858 2 3 cbr 1000 ------- 0 1.0 3.0 43 43
- 0.858 2 3 cbr 1000 ------- 0 1.0 3.0 43 43
r 0.858706 2 3 cbr 1000 ------- 0 1.0 3.0 40 40
+ 0.86 1 2 cbr 1000 ------- 0 1.0 3.0 45 45
- 0.86 1 2 cbr 1000 ------- 0 1.0 3.0 45 45
r 0.866 1 2 cbr 1000 ------- 0 1.0 3.0 44 44
+ 0.866 2 3 cbr 1000 ------- 0 1.0 3.0 44 44
- 0.866 2 3 cbr 1000 ------- 0 1.0 3.0 44 44
r 0.866706 2 3 cbr 1000 ------- 0 1.0 3.0 41 41
+ 0.868 1 2 cbr 1000 ------- 0 1.0 3.0 46 46
- 0.868 1 2 cbr 1000 ------- 0 1.0 3.0 46 46
r 0.874 1 2 cbr 1000 ------- 0 1.0 3.0 45 45
+ 0.874 2 3 cbr 1000 ------- 0 1.0 3.0 45 45
- 0.874 2 3 cbr 1000 ------- 0 1.0 3.0 45 45
r 0.874706 2 3 cbr 1000 ------- 0 1.0 3.0 42 42
+ 0.876 1 2 cbr 1000 ------- 0 1.0 3.0 47 47
- 0.876 1 2 cbr 1000 ------- 0 1.0 3.0 47 47
r 0.882 1 2 cbr 1000 ------- 0 1.0 3.0 46 46
+ 0.882 2 3 cbr 1000 ------- 0 1.0 3.0 46 46
- 0.882 2 3 cbr 1000 ------- 0 1.0 3.0 46 46
r 0.882706 2 3 cbr 1000 ------- 0 1.0 3.0 43 43
+ 0.884 1 2 cbr 1000 ------- 0 1.0 3.0 48 48
- 0.884 1 2 cbr 1000 ------- 0 1.0 3.0 48 48
r 0.89 1 2 cbr 1000 ------- 0 1.0 3.0 47 47
+ 0.89 2 3 cbr 1000 ------- 0 1.0 3.0 47 47
- 0.89 2 3 cbr 1000 ------- 0 1.0 3.0 47 47
r 0.890706 2 3 cbr 1000 ------- 0 1.0 3.0 44 44
+ 0.892 1 2 cbr 1000 ------- 0 1.0 3.0 49 49
- 0.892 1 2 cbr 1000 ------- 0 1.0 3.0 49 49
r 0.898 1 2 cbr 1000 ------- 0 1.0 3.0 48 48
+ 0.898 2 3 cbr 1000 ------- 0 1.0 3.0 48 48
- 0.898 2 3 cbr 1000 ------- 0 1.0 3.0 48 48
r 0.898706 2 3 cbr 1000 ------- 0 1.0 3.0 45 45
+ 0.9 1 2 cbr 1000 ------- 0 1.0 3.0 50 50
- 0.9 1 2 cbr 1000 ------- 0 1.0 3.0 50 50
r 0.906 1 2 cbr 1000 ------- 0 1.0 3.0 49 49
+ 0.906 2 3 cbr 1000 ------- 0 1.0 3.0 49 49
- 0.906 2 3 cbr 1000 ------- 0 1.0 3.0 49 49
r 0.906706 2 3 cbr 1000 ------- 0 1.0 3.0 46 46
+ 0.908 1 2 cbr 1000 ------- 0 1.0 3.0 51 51
- 0.908 1 2 cbr 1000 ------- 0 1.0 3.0 51 51
r 0.914 1 2 cbr 1000 ------- 0 1.0 3.0 50 50
+ 0.914 2 3 cbr 1000 ------- 0 1.0 3.0 50 50
- 0.914 2 3 cbr 1000 ------- 0 1.0 3.0 50 50
r 0.914706 2 3 cbr 1000 ------- 0 1.0 3.0 47 47
+ 0.916 1 2 cbr 1000 ------- 0 1.0 3.0 52 52
- 0.916 1 2 cbr 1000 ------- 0 1.0 3.0 52 52
r 0.922 1 2 cbr 1000 ------- 0 1.0 3.0 51 51
+ 0.922 2 3 cbr 1000 ------- 0 1.0 3.0 51 51
- 0.922 2 3 cbr 1000 ------- 0 1.0 3.0 51 51
r 0.922706 2 3 cbr 1000 ------- 0 1.0 3.0 48 48
+ 0.924 1 2 cbr 1000 ------- 0 1.0 3.0 53 53
- 0.924 1 2 cbr 1000 ------- 0 1.0 3.0 53 53
r 0.93 1 2 cbr 1000 ------- 0 1.0 3.0 52 52
+ 0.93 2 3 cbr 1000 ------- 0 1.0 3.0 52 52
- 0.93 2 3 cbr 1000 ------- 0 1.0 3.0 52 52
r 0.930706 2 3 cbr 1000 ------- 0 1.0 3.0 49 49
+ 0.932 1 2 cbr 1000 ------- 0 1.0 3.0 54 54
- 0.932 1 2 cbr 1000 ------- 0 1.0 3.0 54 54
r 0.938 1 2 cbr 1000 ------- 0 1.0 3.0 53 53
+ 0.938 2 3 cbr 1000 ------- 0 1.0 3.0 53 53
- 0.938 2 3 cbr 1000 ------- 0 1.0 3.0 53 53
r 0.938706 2 3 cbr 1000 ------- 0 1.0 3.0 50 50
+ 0.94 1 2 cbr 1000 ------- 0 1.0 3.0 55 55
- 0.94 1 2 cbr 1000 ------- 0 1.0 3.0 55 55
r 0.946 1 2 cbr 1000 ------- 0 1.0 3.0 54 54
+ 0.946 2 3 cbr 1000 ------- 0 1.0 3.0 54 54
- 0.946 2 3 cbr 1000 ------- 0 1.0 3.0 54 54
r 0.946706 2 3 cbr 1000 ------- 0 1.0 3.0 51 51
+ 0.948 1 2 cbr 1000 ------- 0 1.0 3.0 56 56
- 0.948 1 2 cbr 1000 ------- 0 1.0 3.0 56 56
r 0.954 1 2 cbr 1000 ------- 0 1.0 3.0 55 55
+ 0.954 2 3 cbr 1000 ------- 0 1.0 3.0 55 55
- 0.954 2 3 cbr 1000 ------- 0 1.0 3.0 55 55
r 0.954706 2 3 cbr 1000 ------- 0 1.0 3.0 52 52
+ 0.956 1 2 cbr 1000 ------- 0 1.0 3.0 57 57
- 0.956 1 2 cbr 1000 ------- 0 1.0 3.0 57 57
r 0.962 1 2 cbr 1000 ------- 0 1.0 3.0 56 56
+ 0.962 2 3 cbr 1000 ------- 0 1.0 3.0 56 56
- 0.962 2 3 cbr 1000 ------- 0 1.0 3.0 56 56
r 0.962706 2 3 cbr 1000 ------- 0 1.0 3.0 53 53
+ 0.964 1 2 cbr 1000 ------- 0 1.0 3.0 58 58
- 0.964 1 2 cbr 1000 ------- 0 1.0 3.0 58 58
r 0.97 1 2 cbr 1000 ------- 0 1.0 3.0 57 57
+ 0.97 2 3 cbr 1000 ------- 0 1.0 3.0 57 57
- 0.97 2 3 cbr 1000 ------- 0 1.0 3.0 57 57
r 0.970706 2 3 cbr 1000 ------- 0 1.0 3.0 54 54
+ 0.972 1 2 cbr 1000 ------- 0 1.0 3.0 59 59
- 0.972 1 2 cbr 1000 ------- 0 1.0 3.0 59 59
r 0.978 1 2 cbr 1000 ------- 0 1.0 3.0 58 58
+ 0.978 2 3 cbr 1000 ------- 0 1.0 3.0 58 58
- 0.978 2 3 cbr 1000 ------- 0 1.0 3.0 58 58
r 0.978706 2 3 cbr 1000 ------- 0 1.0 3.0 55 55
+ 0.98 1 2 cbr 1000 ------- 0 1.0 3.0 60 60
- 0.98 1 2 cbr 1000 ------- 0 1.0 3.0 60 60
r 0.986 1 2 cbr 1000 ------- 0 1.0 3.0 59 59
+ 0.986 2 3 cbr 1000 ------- 0 1.0 3.0 59 59
- 0.986 2 3 cbr 1000 ------- 0 1.0 3.0 59 59
r 0.986706 2 3 cbr 1000 ------- 0 1.0 3.0 56 56
+ 0.988 1 2 cbr 1000 ------- 0 1.0 3.0 61 61
- 0.988 1 2 cbr 1000 ------- 0 1.0 3.0 61 61
r 0.994 1 2 cbr 1000 ------- 0 1.0 3.0 60 60
+ 0.994 2 3 cbr 1000 ------- 0 1.0 3.0 60 60
- 0.994 2 3 cbr 1000 ------- 0 1.0 3.0 60 60
r 0.994706 2 3 cbr 1000 ------- 0 1.0 3.0 57 57
+ 0.996 1 2 cbr 1000 ------- 0 1.0 3.0 62 62
- 0.996 1 2 cbr 1000 ------- 0 1.0 3.0 62 62
+ 1 0 2 tcp 40 ------- 0 0.0 3.1 0 63
- 1 0 2 tcp 40 ------- 0 0.0 3.1 0 63
r 1.002 1 2 cbr 1000 ------- 0 1.0 3.0 61 61
+ 1.002 2 3 cbr 1000 ------- 0 1.0 3.0 61 61
- 1.002 2 3 cbr 1000 ------- 0 1.0 3.0 61 61
r 1.002706 2 3 cbr 1000 ------- 0 1.0 3.0 58 58
+ 1.004 1 2 cbr 1000 ------- 0 1.0 3.0 63 64
- 1.004 1 2 cbr 1000 ------- 0 1.0 3.0 63 64
r 1.01 1 2 cbr 1000 ------- 0 1.0 3.0 62 62
+ 1.01 2 3 cbr 1000 ------- 0 1.0 3.0 62 62
- 1.01 2 3 cbr 1000 ------- 0 1.0 3.0 62 62
r 1.01016 0 2 tcp 40 ------- 0 0.0 3.1 0 63
+ 1.01016 2 3 tcp 40 ------- 0 0.0 3.1 0 63
r 1.010706 2 3 cbr 1000 ------- 0 1.0 3.0 59 59
+ 1.012 1 2 cbr 1000 ------- 0 1.0 3.0 64 65
- 1.012 1 2 cbr 1000 ------- 0 1.0 3.0 64 65
- 1.014706 2 3 tcp 40 ------- 0 0.0 3.1 0 63
r 1.018 1 2 cbr 1000 ------- 0 1.0 3.0 63 64
+ 1.018 2 3 cbr 1000 ------- 0 1.0 3.0 63 64
- 1.018 2 3 cbr 1000 ------- 0 1.0 3.0 63 64
r 1.018706 2 3 cbr 1000 ------- 0 1.0 3.0 60 60
+ 1.02 1 2 cbr 1000 ------- 0 1.0 3.0 65 66
- 1.02 1 2 cbr 1000 ------- 0 1.0 3.0 65 66
r 1.026 1 2 cbr 1000 ------- 0 1.0 3.0 64 65
+ 1.026 2 3 cbr 1000 ------- 0 1.0 3.0 64 65
- 1.026 2 3 cbr 1000 ------- 0 1.0 3.0 64 65
r 1.026706 2 3 cbr 1000 ------- 0 1.0 3.0 61 61
+ 1.028 1 2 cbr 1000 ------- 0 1.0 3.0 66 67
- 1.028 1 2 cbr 1000 ------- 0 1.0 3.0 66 67
r 1.034 1 2 cbr 1000 ------- 0 1.0 3.0 65 66
+ 1.034 2 3 cbr 1000 ------- 0 1.0 3.0 65 66
- 1.034 2 3 cbr 1000 ------- 0 1.0 3.0 65 66
r 1.034706 2 3 cbr 1000 ------- 0 1.0 3.0 62 62
r 1.034894 2 3 tcp 40 ------- 0 0.0 3.1 0 63
+ 1.034894 3 2 ack 40 ------- 0 3.1 0.0 0 68
- 1.034894 3 2 ack 40 ------- 0 3.1 0.0 0 68
+ 1.036 1 2 cbr 1000 ------- 0 1.0 3.0 67 69
- 1.036 1 2 cbr 1000 ------- 0 1.0 3.0 67 69
r 1.042 1 2 cbr 1000 ------- 0 1.0 3.0 66 67
+ 1.042 2 3 cbr 1000 ------- 0 1.0 3.0 66 67
- 1.042 2 3 cbr 1000 ------- 0 1.0 3.0 66 67
r 1.042706 2 3 cbr 1000 ------- 0 1.0 3.0 63 64
+ 1.044 1 2 cbr 1000 ------- 0 1.0 3.0 68 70
- 1.044 1 2 cbr 1000 ------- 0 1.0 3.0 68 70
r 1.05 1 2 cbr 1000 ------- 0 1.0 3.0 67 69
+ 1.05 2 3 cbr 1000 ------- 0 1.0 3.0 67 69
- 1.05 2 3 cbr 1000 ------- 0 1.0 3.0 67 69
r 1.050706 2 3 cbr 1000 ------- 0 1.0 3.0 64 65
+ 1.052 1 2 cbr 1000 ------- 0 1.0 3.0 69 71
- 1.052 1 2 cbr 1000 ------- 0 1.0 3.0 69 71
r 1.055082 3 2 ack 40 ------- 0 3.1 0.0 0 68
+ 1.055082 2 0 ack 40 ------- 0 3.1 0.0 0 68
- 1.055082 2 0 ack 40 ------- 0 3.1 0.0 0 68
r 1.058 1 2 cbr 1000 ------- 0 1.0 3.0 68 70
+ 1.058 2 3 cbr 1000 ------- 0 1.0 3.0 68 70
- 1.058 2 3 cbr 1000 ------- 0 1.0 3.0 68 70
r 1.058706 2 3 cbr 1000 ------- 0 1.0 3.0 65 66
+ 1.06 1 2 cbr 1000 ------- 0 1.0 3.0 70 72
- 1.06 1 2 cbr 1000 ------- 0 1.0 3.0 70 72
r 1.065242 2 0 ack 40 ------- 0 3.1 0.0 0 68
+ 1.065242 0 2 tcp 1040 ------- 0 0.0 3.1 1 73
- 1.065242 0 2 tcp 1040 ------- 0 0.0 3.1 1 73
+ 1.065242 0 2 tcp 1040 ------- 0 0.0 3.1 2 74
r 1.066 1 2 cbr 1000 ------- 0 1.0 3.0 69 71
+ 1.066 2 3 cbr 1000 ------- 0 1.0 3.0 69 71
- 1.066 2 3 cbr 1000 ------- 0 1.0 3.0 69 71
r 1.066706 2 3 cbr 1000 ------- 0 1.0 3.0 66 67
+ 1.068 1 2 cbr 1000 ------- 0 1.0 3.0 71 75
- 1.068 1 2 cbr 1000 ------- 0 1.0 3.0 71 75
- 1.069402 0 2 tcp 1040 ------- 0 0.0 3.1 2 74
r 1.074 1 2 cbr 1000 ------- 0 1.0 3.0 70 72
+ 1.074 2 3 cbr 1000 ------- 0 1.0 3.0 70 72
- 1.074 2 3 cbr 1000 ------- 0 1.0 3.0 70 72
r 1.074706 2 3 cbr 1000 ------- 0 1.0 3.0 67 69
+ 1.076 1 2 cbr 1000 ------- 0 1.0 3.0 72 76
- 1.076 1 2 cbr 1000 ------- 0 1.0 3.0 72 76
r 1.079402 0 2 tcp 1040 ------- 0 0.0 3.1 1 73
+ 1.079402 2 3 tcp 1040 ------- 0 0.0 3.1 1 73
- 1.079402 2 3 tcp 1040 ------- 0 0.0 3.1 1 73
r 1.082 1 2 cbr 1000 ------- 0 1.0 3.0 71 75
+ 1.082 2 3 cbr 1000 ------- 0 1.0 3.0 71 75
r 1.082706 2 3 cbr 1000 ------- 0 1.0 3.0 68 70
r 1.083562 0 2 tcp 1040 ------- 0 0.0 3.1 2 74
+ 1.083562 2 3 tcp 1040 ------- 0 0.0 3.1 2 74
+ 1.084 1 2 cbr 1000 ------- 0 1.0 3.0 73 77
- 1.084 1 2 cbr 1000 ------- 0 1.0 3.0 73 77
- 1.084296 2 3 cbr 1000 ------- 0 1.0 3.0 71 75
- 1.089002 2 3 tcp 1040 ------- 0 0.0 3.1 2 74
r 1.09 1 2 cbr 1000 ------- 0 1.0 3.0 72 76
+ 1.09 2 3 cbr 1000 ------- 0 1.0 3.0 72 76
r 1.090706 2 3 cbr 1000 ------- 0 1.0 3.0 69 71
+ 1.092 1 2 cbr 1000 ------- 0 1.0 3.0 74 78
- 1.092 1 2 cbr 1000 ------- 0 1.0 3.0 74 78
- 1.093896 2 3 cbr 1000 ------- 0 1.0 3.0 72 76
r 1.098 1 2 cbr 1000 ------- 0 1.0 3.0 73 77
+ 1.098 2 3 cbr 1000 ------- 0 1.0 3.0 73 77
- 1.098602 2 3 cbr 1000 ------- 0 1.0 3.0 73 77
r 1.098706 2 3 cbr 1000 ------- 0 1.0 3.0 70 72
+ 1.1 1 2 cbr 1000 ------- 0 1.0 3.0 75 79
- 1.1 1 2 cbr 1000 ------- 0 1.0 3.0 75 79
r 1.104296 2 3 tcp 1040 ------- 0 0.0 3.1 1 73
+ 1.104296 3 2 ack 40 ------- 0 3.1 0.0 1 80
- 1.104296 3 2 ack 40 ------- 0 3.1 0.0 1 80
r 1.106 1 2 cbr 1000 ------- 0 1.0 3.0 74 78
+ 1.106 2 3 cbr 1000 ------- 0 1.0 3.0 74 78
- 1.106 2 3 cbr 1000 ------- 0 1.0 3.0 74 78
+ 1.108 1 2 cbr 1000 ------- 0 1.0 3.0 76 81
- 1.108 1 2 cbr 1000 ------- 0 1.0 3.0 76 81
r 1.109002 2 3 cbr 1000 ------- 0 1.0 3.0 71 75
r 1.113896 2 3 tcp 1040 ------- 0 0.0 3.1 2 74
+ 1.113896 3 2 ack 40 ------- 0 3.1 0.0 2 82
- 1.113896 3 2 ack 40 ------- 0 3.1 0.0 2 82
r 1.114 1 2 cbr 1000 ------- 0 1.0 3.0 75 79
+ 1.114 2 3 cbr 1000 ------- 0 1.0 3.0 75 79
- 1.114 2 3 cbr 1000 ------- 0 1.0 3.0 75 79
+ 1.116 1 2 cbr 1000 ------- 0 1.0 3.0 77 83
- 1.116 1 2 cbr 1000 ------- 0 1.0 3.0 77 83
r 1.118602 2 3 cbr 1000 ------- 0 1.0 3.0 72 76
r 1.122 1 2 cbr 1000 ------- 0 1.0 3.0 76 81
+ 1.122 2 3 cbr 1000 ------- 0 1.0 3.0 76 81
- 1.122 2 3 cbr 1000 ------- 0 1.0 3.0 76 81
r 1.123308 2 3 cbr 1000 ------- 0 1.0 3.0 73 77
+ 1.124 1 2 cbr 1000 ------- 0 1.0 3.0 78 84
- 1.124 1 2 cbr 1000 ------- 0 1.0 3.0 78 84
r 1.124485 3 2 ack 40 ------- 0 3.1 0.0 1 80
+ 1.124485 2 0 ack 40 ------- 0 3.1 0.0 1 80
- 1.124485 2 0 ack 40 ------- 0 3.1 0.0 1 80
r 1.13 1 2 cbr 1000 ------- 0 1.0 3.0 77 83
+ 1.13 2 3 cbr 1000 ------- 0 1.0 3.0 77 83
- 1.13 2 3 cbr 1000 ------- 0 1.0 3.0 77 83
r 1.130706 2 3 cbr 1000 ------- 0 1.0 3.0 74 78
+ 1.132 1 2 cbr 1000 ------- 0 1.0 3.0 79 85
- 1.132 1 2 cbr 1000 ------- 0 1.0 3.0 79 85
r 1.134085 3 2 ack 40 ------- 0 3.1 0.0 2 82
+ 1.134085 2 0 ack 40 ------- 0 3.1 0.0 2 82
- 1.134085 2 0 ack 40 ------- 0 3.1 0.0 2 82
r 1.134645 2 0 ack 40 ------- 0 3.1 0.0 1 80
+ 1.134645 0 2 tcp 1040 ------- 0 0.0 3.1 3 86
- 1.134645 0 2 tcp 1040 ------- 0 0.0 3.1 3 86
+ 1.134645 0 2 tcp 1040 ------- 0 0.0 3.1 4 87
r 1.138 1 2 cbr 1000 ------- 0 1.0 3.0 78 84
+ 1.138 2 3 cbr 1000 ------- 0 1.0 3.0 78 84
- 1.138 2 3 cbr 1000 ------- 0 1.0 3.0 78 84
r 1.138706 2 3 cbr 1000 ------- 0 1.0 3.0 75 79
- 1.138805 0 2 tcp 1040 ------- 0 0.0 3.1 4 87
+ 1.14 1 2 cbr 1000 ------- 0 1.0 3.0 80 88
- 1.14 1 2 cbr 1000 ------- 0 1.0 3.0 80 88
r 1.144245 2 0 ack 40 ------- 0 3.1 0.0 2 82
+ 1.144245 0 2 tcp 1040 ------- 0 0.0 3.1 5 89
- 1.144245 0 2 tcp 1040 ------- 0 0.0 3.1 5 89
+ 1.144245 0 2 tcp 1040 ------- 0 0.0 3.1 6 90
r 1.146 1 2 cbr 1000 ------- 0 1.0 3.0 79 85
+ 1.146 2 3 cbr 1000 ------- 0 1.0 3.0 79 85
- 1.146 2 3 cbr 1000 ------- 0 1.0 3.0 79 85
r 1.146706 2 3 cbr 1000 ------- 0 1.0 3.0 76 81
+ 1.148 1 2 cbr 1000 ------- 0 1.0 3.0 81 91
- 1.148 1 2 cbr 1000 ------- 0 1.0 3.0 81 91
- 1.148405 0 2 tcp 1040 ------- 0 0.0 3.1 6 90
r 1.148805 0 2 tcp 1040 ------- 0 0.0 3.1 3 86
+ 1.148805 2 3 tcp 1040 ------- 0 0.0 3.1 3 86
- 1.150706 2 3 tcp 1040 ------- 0 0.0 3.1 3 86
r 1.152965 0 2 tcp 1040 ------- 0 0.0 3.1 4 87
+ 1.152965 2 3 tcp 1040 ------- 0 0.0 3.1 4 87
r 1.154 1 2 cbr 1000 ------- 0 1.0 3.0 80 88
+ 1.154 2 3 cbr 1000 ------- 0 1.0 3.0 80 88
r 1.154706 2 3 cbr 1000 ------- 0 1.0 3.0 77 83
- 1.1556 2 3 tcp 1040 ------- 0 0.0 3.1 4 87
+ 1.156 1 2 cbr 1000 ------- 0 1.0 3.0 82 92
- 1.156 1 2 cbr 1000 ------- 0 1.0 3.0 82 92
r 1.158405 0 2 tcp 1040 ------- 0 0.0 3.1 5 89
+ 1.158405 2 3 tcp 1040 ------- 0 0.0 3.1 5 89
- 1.160494 2 3 cbr 1000 ------- 0 1.0 3.0 80 88
r 1.162 1 2 cbr 1000 ------- 0 1.0 3.0 81 91
+ 1.162 2 3 cbr 1000 ------- 0 1.0 3.0 81 91
r 1.162565 0 2 tcp 1040 ------- 0 0.0 3.1 6 90
+ 1.162565 2 3 tcp 1040 ------- 0 0.0 3.1 6 90
r 1.162706 2 3 cbr 1000 ------- 0 1.0 3.0 78 84
+ 1.164 1 2 cbr 1000 ------- 0 1.0 3.0 83 93
- 1.164 1 2 cbr 1000 ------- 0 1.0 3.0 83 93
- 1.1652 2 3 tcp 1040 ------- 0 0.0 3.1 5 89
r 1.17 1 2 cbr 1000 ------- 0 1.0 3.0 82 92
+ 1.17 2 3 cbr 1000 ------- 0 1.0 3.0 82 92
- 1.170094 2 3 cbr 1000 ------- 0 1.0 3.0 81 91
r 1.170706 2 3 cbr 1000 ------- 0 1.0 3.0 79 85
+ 1.172 1 2 cbr 1000 ------- 0 1.0 3.0 84 94
- 1.172 1 2 cbr 1000 ------- 0 1.0 3.0 84 94
- 1.1748 2 3 tcp 1040 ------- 0 0.0 3.1 6 90
r 1.1756 2 3 tcp 1040 ------- 0 0.0 3.1 3 86
+ 1.1756 3 2 ack 40 ------- 0 3.1 0.0 3 95
- 1.1756 3 2 ack 40 ------- 0 3.1 0.0 3 95
r 1.178 1 2 cbr 1000 ------- 0 1.0 3.0 83 93
+ 1.178 2 3 cbr 1000 ------- 0 1.0 3.0 83 93
- 1.179694 2 3 cbr 1000 ------- 0 1.0 3.0 82 92
+ 1.18 1 2 cbr 1000 ------- 0 1.0 3.0 85 96
- 1.18 1 2 cbr 1000 ------- 0 1.0 3.0 85 96
r 1.180494 2 3 tcp 1040 ------- 0 0.0 3.1 4 87
+ 1.180494 3 2 ack 40 ------- 0 3.1 0.0 4 97
- 1.180494 3 2 ack 40 ------- 0 3.1 0.0 4 97
- 1.1844 2 3 cbr 1000 ------- 0 1.0 3.0 83 93
r 1.1852 2 3 cbr 1000 ------- 0 1.0 3.0 80 88
r 1.186 1 2 cbr 1000 ------- 0 1.0 3.0 84 94
+ 1.186 2 3 cbr 1000 ------- 0 1.0 3.0 84 94
+ 1.188 1 2 cbr 1000 ------- 0 1.0 3.0 86 98
- 1.188 1 2 cbr 1000 ------- 0 1.0 3.0 86 98
- 1.189106 2 3 cbr 1000 ------- 0 1.0 3.0 84 94
r 1.190094 2 3 tcp 1040 ------- 0 0.0 3.1 5 89
+ 1.190094 3 2 ack 40 ------- 0 3.1 0.0 5 99
- 1.190094 3 2 ack 40 ------- 0 3.1 0.0 5 99
r 1.194 1 2 cbr 1000 ------- 0 1.0 3.0 85 96
+ 1.194 2 3 cbr 1000 ------- 0 1.0 3.0 85 96
- 1.194 2 3 cbr 1000 ------- 0 1.0 3.0 85 96
r 1.1948 2 3 cbr 1000 ------- 0 1.0 3.0 81 91
r 1.195788 3 2 ack 40 ------- 0 3.1 0.0 3 95
+ 1.195788 2 0 ack 40 ------- 0 3.1 0.0 3 95
- 1.195788 2 0 ack 40 ------- 0 3.1 0.0 3 95
+ 1.196 1 2 cbr 1000 ------- 0 1.0 3.0 87 100
- 1.196 1 2 cbr 1000 ------- 0 1.0 3.0 87 100
r 1.199694 2 3 tcp 1040 ------- 0 0.0 3.1 6 90
+ 1.199694 3 2 ack 40 ------- 0 3.1 0.0 6 101
- 1.199694 3 2 ack 40 ------- 0 3.1 0.0 6 101
r 1.200682 3 2 ack 40 ------- 0 3.1 0.0 4 97
+ 1.200682 2 0 ack 40 ------- 0 3.1 0.0 4 97
- 1.200682 2 0 ack 40 ------- 0 3.1 0.0 4 97
r 1.202 1 2 cbr 1000 ------- 0 1.0 3.0 86 98
+ 1.202 2 3 cbr 1000 ------- 0 1.0 3.0 86 98
- 1.202 2 3 cbr 1000 ------- 0 1.0 3.0 86 98
+ 1.204 1 2 cbr 1000 ------- 0 1.0 3.0 88 102
- 1.204 1 2 cbr 1000 ------- 0 1.0 3.0 88 102
r 1.2044 2 3 cbr 1000 ------- 0 1.0 3.0 82 92
r 1.205948 2 0 ack 40 ------- 0 3.1 0.0 3 95
+ 1.205948 0 2 tcp 1040 ------- 0 0.0 3.1 7 103
- 1.205948 0 2 tcp 1040 ------- 0 0.0 3.1 7 103
+ 1.205948 0 2 tcp 1040 ------- 0 0.0 3.1 8 104
r 1.209106 2 3 cbr 1000 ------- 0 1.0 3.0 83 93
r 1.21 1 2 cbr 1000 ------- 0 1.0 3.0 87 100
+ 1.21 2 3 cbr 1000 ------- 0 1.0 3.0 87 100
- 1.21 2 3 cbr 1000 ------- 0 1.0 3.0 87 100
- 1.210108 0 2 tcp 1040 ------- 0 0.0 3.1 8 104
r 1.210282 3 2 ack 40 ------- 0 3.1 0.0 5 99
+ 1.210282 2 0 ack 40 ------- 0 3.1 0.0 5 99
- 1.210282 2 0 ack 40 ------- 0 3.1 0.0 5 99
r 1.210842 2 0 ack 40 ------- 0 3.1 0.0 4 97
+ 1.210842 0 2 tcp 1040 ------- 0 0.0 3.1 9 105
+ 1.210842 0 2 tcp 1040 ------- 0 0.0 3.1 10 106
+ 1.212 1 2 cbr 1000 ------- 0 1.0 3.0 89 107
- 1.212 1 2 cbr 1000 ------- 0 1.0 3.0 89 107
r 1.213812 2 3 cbr 1000 ------- 0 1.0 3.0 84 94
- 1.214268 0 2 tcp 1040 ------- 0 0.0 3.1 9 105
r 1.218 1 2 cbr 1000 ------- 0 1.0 3.0 88 102
+ 1.218 2 3 cbr 1000 ------- 0 1.0 3.0 88 102
- 1.218 2 3 cbr 1000 ------- 0 1.0 3.0 88 102
- 1.218428 0 2 tcp 1040 ------- 0 0.0 3.1 10 106
r 1.218706 2 3 cbr 1000 ------- 0 1.0 3.0 85 96
r 1.219882 3 2 ack 40 ------- 0 3.1 0.0 6 101
+ 1.219882 2 0 ack 40 ------- 0 3.1 0.0 6 101
- 1.219882 2 0 ack 40 ------- 0 3.1 0.0 6 101
+ 1.22 1 2 cbr 1000 ------- 0 1.0 3.0 90 108
- 1.22 1 2 cbr 1000 ------- 0 1.0 3.0 90 108
r 1.220108 0 2 tcp 1040 ------- 0 0.0 3.1 7 103
+ 1.220108 2 3 tcp 1040 ------- 0 0.0 3.1 7 103
r 1.220442 2 0 ack 40 ------- 0 3.1 0.0 5 99
+ 1.220442 0 2 tcp 1040 ------- 0 0.0 3.1 11 109
+ 1.220442 0 2 tcp 1040 ------- 0 0.0 3.1 12 110
- 1.222588 0 2 tcp 1040 ------- 0 0.0 3.1 11 109
- 1.222706 2 3 tcp 1040 ------- 0 0.0 3.1 7 103
r 1.224268 0 2 tcp 1040 ------- 0 0.0 3.1 8 104
+ 1.224268 2 3 tcp 1040 ------- 0 0.0 3.1 8 104
r 1.226 1 2 cbr 1000 ------- 0 1.0 3.0 89 107
+ 1.226 2 3 cbr 1000 ------- 0 1.0 3.0 89 107
r 1.226706 2 3 cbr 1000 ------- 0 1.0 3.0 86 98
- 1.226748 0 2 tcp 1040 ------- 0 0.0 3.1 12 110
- 1.2276 2 3 tcp 1040 ------- 0 0.0 3.1 8 104
+ 1.228 1 2 cbr 1000 ------- 0 1.0 3.0 91 111
- 1.228 1 2 cbr 1000 ------- 0 1.0 3.0 91 111
r 1.228428 0 2 tcp 1040 ------- 0 0.0 3.1 9 105
+ 1.228428 2 3 tcp 1040 ------- 0 0.0 3.1 9 105
r 1.230042 2 0 ack 40 ------- 0 3.1 0.0 6 101
+ 1.230042 0 2 tcp 1040 ------- 0 0.0 3.1 13 112
+ 1.230042 0 2 tcp 1040 ------- 0 0.0 3.1 14 113
- 1.230908 0 2 tcp 1040 ------- 0 0.0 3.1 13 112
- 1.232494 2 3 cbr 1000 ------- 0 1.0 3.0 89 107
r 1.232588 0 2 tcp 1040 ------- 0 0.0 3.1 10 106
+ 1.232588 2 3 tcp 1040 ------- 0 0.0 3.1 10 106
r 1.234 1 2 cbr 1000 ------- 0 1.0 3.0 90 108
+ 1.234 2 3 cbr 1000 ------- 0 1.0 3.0 90 108
r 1.234706 2 3 cbr 1000 ------- 0 1.0 3.0 87 100
- 1.235068 0 2 tcp 1040 ------- 0 0.0 3.1 14 113
+ 1.236 1 2 cbr 1000 ------- 0 1.0 3.0 92 114
- 1.236 1 2 cbr 1000 ------- 0 1.0 3.0 92 114
r 1.236748 0 2 tcp 1040 ------- 0 0.0 3.1 11 109
+ 1.236748 2 3 tcp 1040 ------- 0 0.0 3.1 11 109
- 1.2372 2 3 tcp 1040 ------- 0 0.0 3.1 9 105
r 1.240908 0 2 tcp 1040 ------- 0 0.0 3.1 12 110
+ 1.240908 2 3 tcp 1040 ------- 0 0.0 3.1 12 110